LAMMPS data file using Dreiding for PANcycmod

35  atoms
11  bonds
10  angles
10  dihedrals
0  impropers

4  atom types
2  bond types
2  angle types
2  dihedral types
0  improper types

0.0 12.766 xlo xhi
0.0 30.0 ylo yhi
0.0 30.0 zlo zhi


Masses

  4      1.007900     # H_
  1     12.011000     # C_3
  2     12.011000     # C_1
  3     14.006700     # N_1

Atoms

     1   1   1    0.00000      9.23100000     -7.16300000     -1.78200000   0   0   0
     2   1   1    0.00000     10.55500000     -6.43800000     -1.56200000   0   0   0
     3   1   1    0.00000     11.72100000     -7.19900000     -2.17800000   0   0   0
     4   1   1    0.00000     13.00900000     -6.46100000     -1.85500000   0   0   0
     5   1   1    0.00000     14.24600000     -7.24200000     -2.26700000   0   0   0
     6   1   1    0.00000     15.47400000     -6.48700000     -1.77900000   0   0   0
     7   1   1    0.00000     16.75600000     -7.23500000     -2.11100000   0   0   0
     8   1   1    0.00000     17.97500000     -6.44300000     -1.57500000   0   0   0
     9   1   1    0.00000     19.19200000     -7.28100000     -1.11000000   0   0   0
    10   1   1   -0.03235     20.50900000     -6.77000000     -1.69700000   0   0   0
    11   1   2    0.24986      9.30600000     -8.61400000     -1.33400000   0   0   0
    12   1   3   -0.24986     10.44700000     -9.24200000     -1.24700000   0   0   0
    13   1   2    0.24986     11.73900000     -8.59100000     -1.57300000   0   0   0
    14   1   2    0.24986     14.18600000     -8.60100000     -1.61200000   0   0   0
    15   1   2    0.24986     16.63000000     -8.64200000     -1.53200000   0   0   0
    16   1   2    0.24986     19.01400000     -8.73100000     -1.47300000   0   0   0
    17   1   3   -0.24986     12.86500000     -9.21200000     -1.32700000   0   0   0
    18   1   3   -0.24986     15.28500000     -9.22900000     -1.28600000   0   0   0
    19   1   3   -0.24986     17.69600000     -9.33800000     -1.26300000   0   0   0
    20   1   3   -0.24986     20.00600000     -9.42000000     -1.95100000   0   0   0
    21   1   4    0.00000      8.98600000     -7.13300000     -2.86800000   0   0   0
    22   1   4    0.00000     10.49400000     -5.42800000     -2.02900000   0   0   0
    23   1   4    0.00000     10.73400000     -6.32800000     -0.46900000   0   0   0
    24   1   4    0.00000     11.59200000     -7.25500000     -3.28400000   0   0   0
    25   1   4    0.00000     13.00700000     -5.48700000     -2.39200000   0   0   0
    26   1   4    0.00000     13.04900000     -6.27900000     -0.75800000   0   0   0
    27   1   4    0.00000     14.27600000     -7.34500000     -3.37700000   0   0   0
    28   1   4    0.00000     15.39800000     -6.38600000     -0.67200000   0   0   0
    29   1   4    0.00000     15.49800000     -5.47800000     -2.24500000   0   0   0
    30   1   4    0.00000     16.84600000     -7.30300000     -3.22000000   0   0   0
    31   1   4    0.00000     17.63800000     -5.83100000     -0.70900000   0   0   0
    32   1   4    0.00000     18.30800000     -5.76000000     -2.38900000   0   0   0
    33   2   4    0.00000     19.25900000     -7.19300000      0.00000000   0   0   0
    34   1   4    0.00000     21.13300000     -6.35700000     -0.87300000   0   0   0
    35   1   4    0.03235     20.33200000     -5.97600000     -2.45400000   0   0   0

Bonds

1  1  10  35 
2  2  11  12 
3  2  11  20 
4  2  12  13 
5  2  13  17 
6  2  14  17 
7  2  14  18 
8  2  15  18 
9  2  15  19 
10  2  16  19 
11  2  16  20 

Angles

1  1  12  11  20 
2  2  11  12  13 
3  1  12  13  17 
4  1  17  14  18 
5  1  18  15  19 
6  1  19  16  20 
7  2  13  17  14 
8  2  14  18  15 
9  2  15  19  16 
10  2  11  20  16 

Dihedrals

1  1  20  11  12  13 
2  1  12  11  20  16 
3  2  11  12  13  17 
4  1  12  13  17  14 
5  1  18  14  17  13 
6  1  17  14  18  15 
7  1  19  15  18  14 
8  1  18  15  19  16 
9  1  20  16  19  15 
10  1  19  16  20  11 

Impropers


Pair Coeffs

  1      0.095100     3.472990   # C_3
  2      0.095100     3.472990   # C_1
  3      0.077400     3.262560   # N_1
  4      0.015200     2.846421   # H_

Bond Coeffs

  1    350.000000      1.090000    # C_3 H_
  2   1050.000000      1.148000    # C_1 N_1

Angle Coeffs

  1     50.000000    180.000000    # X C_1 X 
  2     50.000000    180.000000    # X N_1 X 

Dihedral Coeffs

  1      0.111110    1   3   # X C_1 N_1 X
  2      0.111110    1   3   # X N_1 C_1 X

Improper Coeffs

