#Unit cell for DIAMOND

4 atoms
1 atom types

0.0 2.4534  xlo xhi
0.0 4.2492  ylo yhi
0.0 0.1   zlo zhi

Masses

1 12

Atoms

1 1 0 0.0 0.0 0.0 
2 1 0 2.4534 1.4164 0.0
3 1 0 1.2267 2.1246 0.0
4 1 0 1.2267 3.541 0.0
