# LAMMPS data file written by OVITO
35 atoms
40 bonds
3 atom types
1 bond types
8.9860002 21.1329994 xlo xhi
-9.4200001 -5.428 ylo yhi
-3.3770001 0.0 zlo zhi

Atoms

1 1 1 0.0 9.231 -7.1630001 -1.782
2 1 1 0.0 10.5550003 -6.4380002 -1.5620001
3 1 1 0.0 11.7209997 -7.1989999 -2.178
4 1 1 0.0 13.0089998 -6.461 -1.855
5 1 1 0.0 14.2460003 -7.2420001 -2.267
6 1 1 0.0 15.474 -6.487 -1.7790001
7 1 1 0.0 16.7560005 -7.2350001 -2.1110001
8 1 1 0.0 17.9750004 -6.4429999 -1.5750001
9 1 1 0.0 19.1919994 -7.2810001 -1.11
10 1 1 0.0 20.5090008 -6.77 -1.6970001
11 1 1 0.0 9.3059998 -8.6140003 -1.334
12 1 2 0.0 10.4469996 -9.2419996 -1.247
13 1 1 0.0 11.7390003 -8.5909996 -1.573
14 1 1 0.0 14.1859999 -8.6009999 -1.612
15 1 1 0.0 16.6299992 -8.6420002 -1.532
16 1 1 0.0 19.0139999 -8.731 -1.4730001
17 1 2 0.0 12.8649998 -9.2119999 -1.327
18 1 2 0.0 15.2849999 -9.2290001 -1.286
19 1 2 0.0 17.6959992 -9.3380003 -1.263
20 1 2 0.0 20.0060005 -9.4200001 -1.951
21 1 3 0.0 8.9860002 -7.1329999 -2.868
22 1 3 0.0 10.4940005 -5.428 -2.029
23 1 3 0.0 10.7340002 -6.3280001 -0.469
24 1 3 0.0 11.592 -7.2550001 -3.2839999
25 1 3 0.0 13.007 -5.487 -2.392
26 1 3 0.0 13.0489998 -6.2789998 -0.758
27 1 3 0.0 14.276 -7.3449998 -3.3770001
28 1 3 0.0 15.3979998 -6.3860002 -0.672
29 1 3 0.0 15.4980002 -5.4780002 -2.2449999
30 1 3 0.0 16.8460008 -7.303 -3.22
31 1 3 0.0 17.6380005 -5.8309999 -0.709
32 1 3 0.0 18.3080006 -5.7600003 -2.389
33 1 3 0.0 19.2590008 -7.1929998 0.0
34 1 3 0.0 21.1329994 -6.3569999 -0.873
35 1 3 0.0 20.3320007 -5.9759998 -2.454

Bonds

1 1 1 2
2 1 1 10
3 1 1 11
4 1 1 21
5 1 2 3
6 1 2 22
7 1 2 23
8 1 3 4
9 1 3 13
10 1 3 24
11 1 4 5
12 1 4 25
13 1 4 26
14 1 5 6
15 1 5 14
16 1 5 27
17 1 6 7
18 1 6 28
19 1 6 29
20 1 7 8
21 1 7 15
22 1 7 30
23 1 8 9
24 1 8 31
25 1 8 32
26 1 9 10
27 1 9 16
28 1 9 34
29 1 10 34
30 1 10 35
31 1 11 12
32 1 11 20
33 1 12 13
34 1 13 17
35 1 14 17
36 1 14 18
37 1 15 18
38 1 15 19
39 1 16 19
40 1 16 20
