LAMMPS data file generated by OpenBabel
35 atoms
40 bonds
80 angles
139 dihedrals
0 impropers
3 atom types
3 bond types
6 angle types
9 dihedral types
0 improper types
  -9.92000   21.63300 xlo xhi
  -9.92000   21.63300 ylo yhi
  -9.92000   21.63300 zlo zhi



Masses

1 12.0107 # C
2 1.00794 # H
3 14.0067 # N


Atoms

1       1    1    0.00000    9.23100   -7.16300   -1.78200 #   C
2       1    2    0.41000    8.98600   -7.13300   -2.86800 #   H
3       1    1    0.00000    9.30600   -8.61400   -1.33400 #   C
4       1    3    0.00000   20.00600   -9.42000   -1.95100 #   N
5       1    1    0.00000   19.01400   -8.73100   -1.47300 #   C
6       1    3    0.00000   17.69600   -9.33800   -1.26300 #   N
7       1    1    0.00000   16.63000   -8.64200   -1.53200 #   C
8       1    3    0.00000   15.28500   -9.22900   -1.28600 #   N
9       1    1    0.00000   14.18600   -8.60100   -1.61200 #   C
10      1    3    0.00000   12.86500   -9.21200   -1.32700 #   N
11      1    1    0.00000   11.73900   -8.59100   -1.57300 #   C
12      1    1    0.00000   11.72100   -7.19900   -2.17800 #   C
13      1    2    0.41000   11.59200   -7.25500   -3.28400 #   H
14      1    1    0.00000   13.00900   -6.46100   -1.85500 #   C
15      1    2    0.41000   13.04900   -6.27900   -0.75800 #   H
16      1    2    0.41000   13.00700   -5.48700   -2.39200 #   H
17      1    1    0.00000   14.24600   -7.24200   -2.26700 #   C
18      1    2    0.41000   14.27600   -7.34500   -3.37700 #   H
19      1    1    0.00000   15.47400   -6.48700   -1.77900 #   C
20      1    2    0.41000   15.49800   -5.47800   -2.24500 #   H
21      1    2    0.41000   15.39800   -6.38600   -0.67200 #   H
22      1    1    0.00000   16.75600   -7.23500   -2.11100 #   C
23      1    2    0.41000   16.84600   -7.30300   -3.22000 #   H
24      1    1    0.00000   17.97500   -6.44300   -1.57500 #   C
25      1    2    0.41000   18.30800   -5.76000   -2.38900 #   H
26      1    2    0.41000   17.63800   -5.83100   -0.70900 #   H
27      1    1    0.00000   19.19200   -7.28100   -1.11000 #   C
28      1    2    0.41000   21.13300   -6.35700   -0.87300 #   H
29      1    3    0.00000   10.44700   -9.24200   -1.24700 #   N
30      1    1    0.00000   20.50900   -6.77000   -1.69700 #   C
31      1    2    0.41000   20.33200   -5.97600   -2.45400 #   H
32      1    1    0.00000   10.55500   -6.43800   -1.56200 #   C
33      1    2    0.41000   10.73400   -6.32800   -0.46900 #   H
34      1    2    0.41000   10.49400   -5.42800   -2.02900 #   H
35      2    2    0.41000   19.25900   -7.19300    0.00000 #   H


Bonds

1       1    1    2 #  C: C
2       1    1   10 #  C: C
3       1    1   11 #  C: C
4       2    1   21 #  C: H
5       1    2    3 #  C: C
6       2    2   22 #  C: H
7       2    2   23 #  C: H
8       1    3    4 #  C: C
9       1    3   13 #  C: C
10      2    3   24 #  C: H
11      1    4    5 #  C: C
12      2    4   25 #  C: H
13      2    4   26 #  C: H
14      1    5    6 #  C: C
15      1    5   14 #  C: C
16      2    5   27 #  C: H
17      1    6    7 #  C: C
18      2    6   28 #  C: H
19      2    6   29 #  C: H
20      1    7    8 #  C: C
21      1    7   15 #  C: C
22      2    7   30 #  C: H
23      1    8    9 #  C: C
24      2    8   31 #  C: H
25      2    8   32 #  C: H
26      1    9   10 #  C: C
27      1    9   16 #  C: C
28      2    9   34 #  C: H
29      2   10   34 #  C: H
30      2   10   35 #  C: H
31      3   12   11 #  N: C
32      3   20   11 #  N: C
33      3   12   13 #  N: C
34      3   17   13 #  N: C
35      3   17   14 #  N: C
36      3   18   14 #  N: C
37      3   18   15 #  N: C
38      3   19   15 #  N: C
39      3   19   16 #  N: C
40      3   20   16 #  N: C


Angles

1       1   10    1    2 #  C: C: C
2       1   11    1    2 #  C: C: C
3       2    2    1   21 #  C: C: H
4       1   11    1   10 #  C: C: C
5       2   10    1   21 #  C: C: H
6       2   11    1   21 #  C: C: H
7       1    3    2    1 #  C: C: C
8       2    1    2   22 #  C: C: H
9       2    1    2   23 #  C: C: H
10      2    3    2   22 #  C: C: H
11      2    3    2   23 #  C: C: H
12      4   23    2   22 #  H: C: H
13      1    4    3    2 #  C: C: C
14      1   13    3    2 #  C: C: C
15      2    2    3   24 #  C: C: H
16      1   13    3    4 #  C: C: C
17      2    4    3   24 #  C: C: H
18      2   13    3   24 #  C: C: H
19      1    5    4    3 #  C: C: C
20      2    3    4   25 #  C: C: H
21      2    3    4   26 #  C: C: H
22      2    5    4   25 #  C: C: H
23      2    5    4   26 #  C: C: H
24      4   26    4   25 #  H: C: H
25      1    6    5    4 #  C: C: C
26      1   14    5    4 #  C: C: C
27      2    4    5   27 #  C: C: H
28      1   14    5    6 #  C: C: C
29      2    6    5   27 #  C: C: H
30      2   14    5   27 #  C: C: H
31      1    7    6    5 #  C: C: C
32      2    5    6   28 #  C: C: H
33      2    5    6   29 #  C: C: H
34      2    7    6   28 #  C: C: H
35      2    7    6   29 #  C: C: H
36      4   29    6   28 #  H: C: H
37      1    8    7    6 #  C: C: C
38      1   15    7    6 #  C: C: C
39      2    6    7   30 #  C: C: H
40      1   15    7    8 #  C: C: C
41      2    8    7   30 #  C: C: H
42      2   15    7   30 #  C: C: H
43      1    9    8    7 #  C: C: C
44      2    7    8   31 #  C: C: H
45      2    7    8   32 #  C: C: H
46      2    9    8   31 #  C: C: H
47      2    9    8   32 #  C: C: H
48      4   32    8   31 #  H: C: H
49      1   10    9    8 #  C: C: C
50      1   16    9    8 #  C: C: C
51      2    8    9   34 #  C: C: H
52      1   16    9   10 #  C: C: C
53      2   10    9   34 #  C: C: H
54      2   16    9   34 #  C: C: H
55      1    9   10    1 #  C: C: C
56      2    1   10   34 #  C: C: H
57      2    1   10   35 #  C: C: H
58      2    9   10   34 #  C: C: H
59      2    9   10   35 #  C: C: H
60      4   35   10   34 #  H: C: H
61      5   12   11    1 #  N: C: C
62      5   20   11    1 #  N: C: C
63      6   20   11   12 #  N: C: N
64      3   13   12   11 #  C: N: C
65      5   12   13    3 #  N: C: C
66      5   17   13    3 #  N: C: C
67      6   17   13   12 #  N: C: N
68      5   17   14    5 #  N: C: C
69      5   18   14    5 #  N: C: C
70      6   18   14   17 #  N: C: N
71      5   18   15    7 #  N: C: C
72      5   19   15    7 #  N: C: C
73      6   19   15   18 #  N: C: N
74      5   19   16    9 #  N: C: C
75      5   20   16    9 #  N: C: C
76      6   20   16   19 #  N: C: N
77      3   14   17   13 #  C: N: C
78      3   15   18   14 #  C: N: C
79      3   16   19   15 #  C: N: C
80      3   16   20   11 #  C: N: C


Dihedrals

1       1    3    1    2   10 #  C: C: C: C
2       2   10    1    2   22 #  C: C: C: H
3       2   10    1    2   23 #  C: C: C: H
4       1    3    1    2   11 #  C: C: C: C
5       2   11    1    2   22 #  C: C: C: H
6       2   11    1    2   23 #  C: C: C: H
7       2    3    1    2   21 #  C: C: C: H
8       5   22    1    2   21 #  H: C: C: H
9       5   23    1    2   21 #  H: C: C: H
10      1    9    1   10    2 #  C: C: C: C
11      2    2    1   10   34 #  C: C: C: H
12      2    2    1   10   35 #  C: C: C: H
13      1    9    1   10   11 #  C: C: C: C
14      2   11    1   10   34 #  C: C: C: H
15      2   11    1   10   35 #  C: C: C: H
16      2    9    1   10   21 #  C: C: C: H
17      5   34    1   10   21 #  H: C: C: H
18      5   35    1   10   21 #  H: C: C: H
19      6   12    1   11    2 #  N: C: C: C
20      6   20    1   11    2 #  N: C: C: C
21      6   12    1   11   10 #  N: C: C: C
22      6   20    1   11   10 #  N: C: C: C
23      7   12    1   11   21 #  N: C: C: H
24      7   20    1   11   21 #  N: C: C: H
25      1    4    2    3    1 #  C: C: C: C
26      1   13    2    3    1 #  C: C: C: C
27      2    1    2    3   24 #  C: C: C: H
28      2    4    2    3   22 #  C: C: C: H
29      2   13    2    3   22 #  C: C: C: H
30      5   24    2    3   22 #  H: C: C: H
31      2    4    2    3   23 #  C: C: C: H
32      2   13    2    3   23 #  C: C: C: H
33      5   24    2    3   23 #  H: C: C: H
34      1    5    3    4    2 #  C: C: C: C
35      2    2    3    4   25 #  C: C: C: H
36      2    2    3    4   26 #  C: C: C: H
37      1    5    3    4   13 #  C: C: C: C
38      2   13    3    4   25 #  C: C: C: H
39      2   13    3    4   26 #  C: C: C: H
40      2    5    3    4   24 #  C: C: C: H
41      5   25    3    4   24 #  H: C: C: H
42      5   26    3    4   24 #  H: C: C: H
43      6   12    3   13    2 #  N: C: C: C
44      6   17    3   13    2 #  N: C: C: C
45      6   12    3   13    4 #  N: C: C: C
46      6   17    3   13    4 #  N: C: C: C
47      7   12    3   13   24 #  N: C: C: H
48      7   17    3   13   24 #  N: C: C: H
49      1    6    4    5    3 #  C: C: C: C
50      1   14    4    5    3 #  C: C: C: C
51      2    3    4    5   27 #  C: C: C: H
52      2    6    4    5   25 #  C: C: C: H
53      2   14    4    5   25 #  C: C: C: H
54      5   27    4    5   25 #  H: C: C: H
55      2    6    4    5   26 #  C: C: C: H
56      2   14    4    5   26 #  C: C: C: H
57      5   27    4    5   26 #  H: C: C: H
58      1    7    5    6    4 #  C: C: C: C
59      2    4    5    6   28 #  C: C: C: H
60      2    4    5    6   29 #  C: C: C: H
61      1    7    5    6   14 #  C: C: C: C
62      2   14    5    6   28 #  C: C: C: H
63      2   14    5    6   29 #  C: C: C: H
64      2    7    5    6   27 #  C: C: C: H
65      5   28    5    6   27 #  H: C: C: H
66      5   29    5    6   27 #  H: C: C: H
67      6   17    5   14    4 #  N: C: C: C
68      6   18    5   14    4 #  N: C: C: C
69      6   17    5   14    6 #  N: C: C: C
70      6   18    5   14    6 #  N: C: C: C
71      7   17    5   14   27 #  N: C: C: H
72      7   18    5   14   27 #  N: C: C: H
73      1    8    6    7    5 #  C: C: C: C
74      1   15    6    7    5 #  C: C: C: C
75      2    5    6    7   30 #  C: C: C: H
76      2    8    6    7   28 #  C: C: C: H
77      2   15    6    7   28 #  C: C: C: H
78      5   30    6    7   28 #  H: C: C: H
79      2    8    6    7   29 #  C: C: C: H
80      2   15    6    7   29 #  C: C: C: H
81      5   30    6    7   29 #  H: C: C: H
82      1    9    7    8    6 #  C: C: C: C
83      2    6    7    8   31 #  C: C: C: H
84      2    6    7    8   32 #  C: C: C: H
85      1    9    7    8   15 #  C: C: C: C
86      2   15    7    8   31 #  C: C: C: H
87      2   15    7    8   32 #  C: C: C: H
88      2    9    7    8   30 #  C: C: C: H
89      5   31    7    8   30 #  H: C: C: H
90      5   32    7    8   30 #  H: C: C: H
91      6   18    7   15    6 #  N: C: C: C
92      6   19    7   15    6 #  N: C: C: C
93      6   18    7   15    8 #  N: C: C: C
94      6   19    7   15    8 #  N: C: C: C
95      7   18    7   15   30 #  N: C: C: H
96      7   19    7   15   30 #  N: C: C: H
97      1   10    8    9    7 #  C: C: C: C
98      1   16    8    9    7 #  C: C: C: C
99      2    7    8    9   34 #  C: C: C: H
100     2   10    8    9   31 #  C: C: C: H
101     2   16    8    9   31 #  C: C: C: H
102     5   34    8    9   31 #  H: C: C: H
103     2   10    8    9   32 #  C: C: C: H
104     2   16    8    9   32 #  C: C: C: H
105     5   34    8    9   32 #  H: C: C: H
106     1    1    9   10    8 #  C: C: C: C
107     2    8    9   10   34 #  C: C: C: H
108     2    8    9   10   35 #  C: C: C: H
109     1    1    9   10   16 #  C: C: C: C
110     2   16    9   10   34 #  C: C: C: H
111     2   16    9   10   35 #  C: C: C: H
112     2    1    9   10   34 #  C: C: C: H
113     5   35    9   10   34 #  H: C: C: H
114     6   19    9   16    8 #  N: C: C: C
115     6   20    9   16    8 #  N: C: C: C
116     6   19    9   16   10 #  N: C: C: C
117     6   20    9   16   10 #  N: C: C: C
118     7   19    9   16   34 #  N: C: C: H
119     7   20    9   16   34 #  N: C: C: H
120     3   13   11   12    1 #  C: C: N: C
121     8   20   11   12   13 #  N: C: N: C
122     3   16   11   20    1 #  C: C: N: C
123     8   12   11   20   16 #  N: C: N: C
124     4    3   12   13   11 #  C: N: C: C
125     9   17   12   13   11 #  N: N: C: C
126     3   14   13   17    3 #  C: C: N: C
127     8   12   13   17   14 #  N: C: N: C
128     3   13   14   17    5 #  C: C: N: C
129     8   18   14   17   13 #  N: C: N: C
130     3   15   14   18    5 #  C: C: N: C
131     8   17   14   18   15 #  N: C: N: C
132     3   14   15   18    7 #  C: C: N: C
133     8   19   15   18   14 #  N: C: N: C
134     3   16   15   19    7 #  C: C: N: C
135     8   18   15   19   16 #  N: C: N: C
136     3   15   16   19    9 #  C: C: N: C
137     8   20   16   19   15 #  N: C: N: C
138     3   11   16   20    9 #  C: C: N: C
139     8   19   16   20   11 #  N: C: N: C
