LAMMPS data file via write_data, version 7 Aug 2019, timestep = 1

126 atoms
4 atom types
126 bonds
4 bond types
234 angles
2 angle types
378 dihedrals
10 dihedral types
144 impropers
1 improper types

80.35739452566108 86.34660547433893 xlo xhi
10.106563723273691 13.564436276726308 ylo yhi
1.4313999999999999e+02 1.7505000000000001e+02 zlo zhi

Masses

1 1.0079
2 12.011
3 12.011
4 14.0067

Pair Coeffs # buck/coul/long

1 3407.79 0.258036 31.3692
2 88366.7 0.277775 583.018
3 88366.7 0.277775 583.018
4 60862.3 0.264545 329.511

Bond Coeffs # harmonic

1 350 1.09
2 350 1.53
3 350 1.362
4 1050 1.148

Angle Coeffs # harmonic

1 50 109.471
2 50 180

Dihedral Coeffs # harmonic

1 0.111111 1 3
2 0.111111 1 3
3 0.111111 1 3
4 0.111111 1 3
5 0.111111 1 3
6 0.111111 1 3
7 0.111111 1 3
8 0 1 3
9 0 1 3
10 0.111111 1 3

Improper Coeffs # harmonic

1 0 0

Atoms # full

10 1 2 2.7430000000000000e-02 8.2820945861513209e+01 1.1138698651457341e+01 1.4402604942154915e+02 0 0 0
14 1 3 -5.2400000000000002e-02 8.1632079606901371e+01 1.0973915774002904e+01 1.4317788571302520e+02 0 0 0
15 1 1 4.6230000000000000e-02 8.2945034709941595e+01 1.0249042590754865e+01 1.4466072073545271e+02 0 0 0
24 1 2 2.7449999999999999e-02 8.2820910638880633e+01 1.1136113957864652e+01 1.4757138301590319e+02 0 0 0
28 1 3 -5.2400000000000002e-02 8.1632208171901922e+01 1.0970157191338521e+01 1.4672321954943052e+02 0 0 0
29 1 1 4.6230000000000000e-02 8.2945878351513201e+01 1.0246580858685858e+01 1.4820605474724923e+02 0 0 0
30 1 4 -5.5469999999999998e-02 8.0694401806981674e+01 1.0838188207788750e+01 1.4605329225163925e+02 0 0 0
4 1 2 -2.6370000000000001e-02 8.4061782921815080e+01 1.1312903424247041e+01 1.4314024866223380e+02 0 0 0
12 1 1 3.0110000000000001e-02 8.4990452771298706e+01 1.1395452073135488e+01 1.4370570412276433e+02 0 0 0
18 1 2 -2.6050000000000000e-02 8.4061575296592864e+01 1.1311544998959342e+01 1.4668558380295585e+02 0 0 0
26 1 1 3.0130000000000001e-02 8.4990163026467016e+01 1.1395010851187671e+01 1.4725103989835668e+02 0 0 0
27 1 1 3.0130000000000001e-02 8.4186550646118022e+01 1.0421964983102113e+01 1.4605036831058530e+02 0 0 0
11 1 2 -2.6050000000000000e-02 8.2646772443916134e+01 1.2379296802131702e+01 1.4491324274801130e+02 0 0 0
19 1 1 3.0130000000000001e-02 8.1717910181972698e+01 1.2295633668905824e+01 1.4547821641739611e+02 0 0 0
20 1 1 3.0130000000000001e-02 8.2522500318121303e+01 1.3269674695215217e+01 1.4427900815875850e+02 0 0 0
25 1 2 -2.6050000000000000e-02 8.2645511274250723e+01 1.2376539368403142e+01 1.4845857718976418e+02 0 0 0
33 1 1 3.0130000000000001e-02 8.1716731131916717e+01 1.2291959031837390e+01 1.4902355022427864e+02 0 0 0
34 1 1 3.0130000000000001e-02 8.2520360284251652e+01 1.3266794299962974e+01 1.4782434218306895e+02 0 0 0
17 1 2 2.7449999999999999e-02 8.3887156307880758e+01 1.2553085654482802e+01 1.4579975870762604e+02 0 0 0
21 1 3 -5.2400000000000002e-02 8.5076292803832388e+01 1.2719440307114779e+01 1.4495227959013843e+02 0 0 0
22 1 1 4.6230000000000000e-02 8.3762365767121366e+01 1.3441943459925234e+01 1.4643541086902098e+02 0 0 0
23 1 4 -5.5469999999999998e-02 8.6014441268606788e+01 1.2851722645200979e+01 1.4428289447403571e+02 0 0 0
31 1 2 2.7449999999999999e-02 8.3885722759181803e+01 1.2551554641219303e+01 1.4934509370767182e+02 0 0 0
35 1 3 -5.2400000000000002e-02 8.5074694490476332e+01 1.2719083331335998e+01 1.4849761535976418e+02 0 0 0
37 1 4 -5.5469999999999998e-02 8.6012712312278396e+01 1.2852291951585540e+01 1.4782823111982128e+02 0 0 0
38 1 2 2.7449999999999999e-02 8.2820876646732827e+01 1.1133529753081767e+01 1.5111671772693632e+02 0 0 0
42 1 3 -5.2400000000000002e-02 8.1632338667394265e+01 1.0966398159688030e+01 1.5026855235064849e+02 0 0 0
43 1 1 4.6230000000000000e-02 8.2946721617207018e+01 1.0244121158115787e+01 1.5175139007499709e+02 0 0 0
44 1 4 -5.5469999999999998e-02 8.0694664175931166e+01 1.0833503382784718e+01 1.4959862529337641e+02 0 0 0
52 1 2 2.7449999999999999e-02 8.2820842001690309e+01 1.1130946790414923e+01 1.5466205261368557e+02 0 0 0
56 1 3 -5.2400000000000002e-02 8.1632470693944526e+01 1.0962640558390296e+01 1.5381388642070559e+02 0 0 0
57 1 1 4.6230000000000000e-02 8.2947566160497900e+01 1.0241662250675645e+01 1.5529672454327380e+02 0 0 0
58 1 4 -5.5469999999999998e-02 8.0694927798921611e+01 1.0828819198750562e+01 1.5314395846371750e+02 0 0 0
32 1 2 -2.6050000000000000e-02 8.4061367671370633e+01 1.1310186573671647e+01 1.5023091894367786e+02 0 0 0
40 1 1 3.0130000000000001e-02 8.4989871074126540e+01 1.1394569288843071e+01 1.5079637556890123e+02 0 0 0
41 1 1 3.0130000000000001e-02 8.4187221255761358e+01 1.0420730913614202e+01 1.4959570305639087e+02 0 0 0
46 1 2 -2.6050000000000000e-02 8.4061159092680583e+01 1.1308828448957032e+01 1.5377625410795602e+02 0 0 0
54 1 1 3.0130000000000001e-02 8.4989578492447450e+01 1.1394129120774570e+01 1.5434171042708681e+02 0 0 0
55 1 1 3.0130000000000001e-02 8.4187891841848582e+01 1.0419496691966229e+01 1.5314103879027155e+02 0 0 0
39 1 2 -2.6050000000000000e-02 8.2644251081609212e+01 1.2373781786261562e+01 1.5200391061988583e+02 0 0 0
47 1 1 3.0130000000000001e-02 8.1715554942264276e+01 1.2288283493049695e+01 1.5256888396049285e+02 0 0 0
48 1 1 3.0130000000000001e-02 8.2518220903276756e+01 1.3263912662594690e+01 1.5136967603166320e+02 0 0 0
53 1 2 -2.6050000000000000e-02 8.2642990865411619e+01 1.2371024051959921e+01 1.5554924503808260e+02 0 0 0
62 1 1 3.0130000000000001e-02 8.2516081874623538e+01 1.3261028841567413e+01 1.5491500955238124e+02 0 0 0
36 1 1 4.6230000000000000e-02 8.3760053053645123e+01 1.3440288543595099e+01 1.4998074529946419e+02 0 0 0
45 1 2 2.7449999999999999e-02 8.3884287655868832e+01 1.2550022045442974e+01 1.5289042842695358e+02 0 0 0
49 1 3 -5.2400000000000002e-02 8.5073093669038414e+01 1.2718725073617472e+01 1.5204295087218202e+02 0 0 0
50 1 1 4.6230000000000000e-02 8.3757740692490501e+01 1.3438631443605965e+01 1.5352607940203120e+02 0 0 0
51 1 4 -5.5469999999999998e-02 8.6010980218529525e+01 1.2852861370306460e+01 1.5137356669604009e+02 0 0 0
63 1 3 -5.2400000000000002e-02 8.5071492547027404e+01 1.2718365874355996e+01 1.5558828623243983e+02 0 0 0
65 1 4 -5.5469999999999998e-02 8.6009245292569560e+01 1.2853428413384627e+01 1.5491890285096602e+02 0 0 0
66 1 2 2.7449999999999999e-02 8.2820808634244827e+01 1.1128364620878010e+01 1.5820738664096373e+02 0 0 0
70 1 3 -5.2400000000000002e-02 8.1632605228576637e+01 1.0958884239032303e+01 1.5735922074797051e+02 0 0 0
71 1 1 4.6230000000000000e-02 8.2948410351467103e+01 1.0239205526894496e+01 1.5884205933942675e+02 0 0 0
72 1 4 -5.5469999999999998e-02 8.0695194883461724e+01 1.0824135996083051e+01 1.5668929186771038e+02 0 0 0
80 1 2 2.7449999999999999e-02 8.2820776220267177e+01 1.1125782150768018e+01 1.6175272064468572e+02 0 0 0
84 1 3 -5.2400000000000002e-02 8.1632739786764859e+01 1.0955128071834372e+01 1.6090455408716039e+02 0 0 0
86 1 4 -5.5469999999999998e-02 8.0695464499639812e+01 1.0819454227515349e+01 1.6023462454083602e+02 0 0 0
60 1 2 -2.6050000000000000e-02 8.4060949560522644e+01 1.1307470624815512e+01 1.5732158929579029e+02 0 0 0
68 1 1 3.0130000000000001e-02 8.4989284933744401e+01 1.1393689101119094e+01 1.5788704629690372e+02 0 0 0
69 1 1 3.0130000000000001e-02 8.4188561145702394e+01 1.0418265106710406e+01 1.5668637388750949e+02 0 0 0
74 1 2 -2.6050000000000000e-02 8.4060739399026104e+01 1.1306114194950091e+01 1.6086692367126562e+02 0 0 0
82 1 1 3.0130000000000001e-02 8.4988988214064719e+01 1.1393249041639919e+01 1.6143238208522882e+02 0 0 0
83 1 1 3.0130000000000001e-02 8.4189230750129312e+01 1.0417034462997535e+01 1.6023170913690745e+02 0 0 0
61 1 1 3.0130000000000001e-02 8.1714379706079669e+01 1.2284607653688921e+01 1.5611421767315090e+02 0 0 0
67 1 2 -2.6050000000000000e-02 8.2641732255576628e+01 1.2368264774969152e+01 1.5909457925700707e+02 0 0 0
75 1 1 3.0130000000000001e-02 8.1713205747492097e+01 1.2280932607458077e+01 1.5965955052633782e+02 0 0 0
76 1 1 3.0130000000000001e-02 8.2513943799438181e+01 1.3258144719967047e+01 1.5846034304954310e+02 0 0 0
90 1 1 3.0130000000000001e-02 8.2511807006486180e+01 1.3255257961974543e+01 1.6200567718334773e+02 0 0 0
59 1 2 2.7449999999999999e-02 8.3882853506023679e+01 1.2548489149093568e+01 1.5643576312267922e+02 0 0 0
64 1 1 4.6230000000000000e-02 8.3755427053738885e+01 1.3436973550486897e+01 1.5707141436406937e+02 0 0 0
73 1 2 2.7449999999999999e-02 8.3881417801564524e+01 1.2546954670231337e+01 1.5998109753764084e+02 0 0 0
77 1 3 -5.2400000000000002e-02 8.5069889217507637e+01 1.2718006334697735e+01 1.5913362148764978e+02 0 0 0
78 1 1 4.6230000000000000e-02 8.3753113767308918e+01 1.3435313473708836e+01 1.6061674899823129e+02 0 0 0
79 1 4 -5.5469999999999998e-02 8.6007509136124810e+01 1.2853994967652989e+01 1.5846423788921291e+02 0 0 0
93 1 4 -5.5469999999999998e-02 8.6005769795147302e+01 1.2854561329937590e+01 1.6200957383404321e+02 0 0 0
85 1 1 4.6230000000000000e-02 8.2949256120606449e+01 1.0236750537786238e+01 1.6238739342826861e+02 0 0 0
94 1 2 2.7449999999999999e-02 8.2820743129838647e+01 1.1123200770613996e+01 1.6529805581219904e+02 0 0 0
98 1 3 -5.2400000000000002e-02 8.1632877806502776e+01 1.0951372886003096e+01 1.6444988766000202e+02 0 0 0
99 1 1 4.6230000000000000e-02 8.2950101236851012e+01 1.0234296790794021e+01 1.6593272769282663e+02 0 0 0
100 1 4 -5.5469999999999998e-02 8.0695736299770573e+01 1.0814772647184364e+01 1.6377995830708460e+02 0 0 0
112 1 3 -5.2400000000000002e-02 8.1633016126813800e+01 1.0947618641714774e+01 1.6799522138500367e+02 0 0 0
114 1 4 -5.5469999999999998e-02 8.0696011585007156e+01 1.0810092200380094e+01 1.6732529131890982e+02 0 0 0
88 1 2 -2.6050000000000000e-02 8.4060529213973439e+01 1.1304757612924606e+01 1.6441225903481609e+02 0 0 0
96 1 1 3.0130000000000001e-02 8.4988690841490254e+01 1.1392810224276788e+01 1.6497771804927018e+02 0 0 0
97 1 1 3.0130000000000001e-02 8.4189898748193613e+01 1.0415805361973788e+01 1.6377704458557776e+02 0 0 0
102 1 2 -2.6050000000000000e-02 8.4060318075452912e+01 1.1303401331472209e+01 1.6795759442192266e+02 0 0 0
110 1 1 3.0130000000000001e-02 8.4988392238431018e+01 1.1392370918103847e+01 1.6852305289663244e+02 0 0 0
111 1 1 3.0130000000000001e-02 8.4190565139895327e+01 1.0414577803639165e+01 1.6732238023352039e+02 0 0 0
81 1 2 -2.6050000000000000e-02 8.2640473669297734e+01 1.2365505650138445e+01 1.6263991248785646e+02 0 0 0
89 1 1 3.0130000000000001e-02 8.1712034325178877e+01 1.2277255565804953e+01 1.6320488414477146e+02 0 0 0
95 1 2 -2.6050000000000000e-02 8.2639216012930589e+01 1.2362746072574591e+01 1.6618524668322476e+02 0 0 0
103 1 1 3.0130000000000001e-02 8.1710864156906567e+01 1.2273579165121710e+01 1.6675021789180894e+02 0 0 0
104 1 1 3.0130000000000001e-02 8.2509670213534207e+01 1.3252371203982037e+01 1.6555101131715233e+02 0 0 0
87 1 2 2.7449999999999999e-02 8.3879981444210614e+01 1.2545421433485144e+01 1.6352643212831865e+02 0 0 0
91 1 3 -5.2400000000000002e-02 8.5068283680479098e+01 1.2717646454642690e+01 1.6267895663781192e+02 0 0 0
92 1 1 4.6230000000000000e-02 8.3750798926264963e+01 1.3433651814417948e+01 1.6416208335162921e+02 0 0 0
101 1 2 2.7449999999999999e-02 8.3878545415622270e+01 1.2543885860919888e+01 1.6707176737919534e+02 0 0 0
105 1 3 -5.2400000000000002e-02 8.5066676565280389e+01 1.2717284839914761e+01 1.6622429249528517e+02 0 0 0
106 1 1 4.6230000000000000e-02 8.3748484738115721e+01 1.3431988913011029e+01 1.6770741752931090e+02 0 0 0
107 1 4 -5.5469999999999998e-02 8.6004027621958741e+01 1.2855125316579432e+01 1.6555491035758067e+02 0 0 0
127 1 1 4.6230000000000000e-02 8.2951792972205610e+01 1.0229394004524352e+01 1.7302339698274304e+02 0 0 0
128 1 4 -5.5469999999999998e-02 8.0696288424857755e+01 1.0805413336088648e+01 1.7087062461149904e+02 0 0 0
16 1 4 -5.5469999999999998e-02 8.0694142923138017e+01 1.0842874166319488e+01 1.7441795845547881e+02 0 0 -1
108 1 2 2.7449999999999999e-02 8.2820711317007195e+01 1.1120620183589912e+01 1.6884339012024114e+02 0 0 0
113 1 1 4.6230000000000000e-02 8.2950946930685660e+01 1.0231844774727646e+01 1.6947806324977989e+02 0 0 0
122 1 2 2.7449999999999999e-02 8.2820679804748821e+01 1.1118040538108774e+01 1.7238872458044335e+02 0 0 0
126 1 3 -5.2400000000000002e-02 8.1633156955206672e+01 1.0943865679366189e+01 1.7154055536721327e+02 0 0 0
13 1 1 3.0110000000000001e-02 8.4185878453668181e+01 1.0423200747439209e+01 1.7441503277597698e+02 0 0 -1
116 1 2 -2.6050000000000000e-02 8.4060105354125923e+01 1.1302046744868999e+01 1.7150292902022642e+02 0 0 0
124 1 1 3.0130000000000001e-02 8.4988090751412102e+01 1.1391932361490097e+01 1.7206838880273821e+02 0 0 0
125 1 1 3.0130000000000001e-02 8.4191231855726230e+01 1.0413351339007562e+01 1.7086771504554795e+02 0 0 0
132 1 1 3.0120000000000001e-02 8.2505400192677129e+01 1.3246592418959779e+01 1.7264167885834073e+02 0 0 0
131 1 1 3.0120000000000001e-02 8.1708528287128118e+01 1.2266223919346823e+01 1.7384088511594337e+02 0 0 0
109 1 2 -2.6050000000000000e-02 8.2637959009458186e+01 1.2359985252894695e+01 1.6973058070287695e+02 0 0 0
117 1 1 3.0130000000000001e-02 8.1709694641529026e+01 1.2269901522322415e+01 1.7029555146313032e+02 0 0 0
118 1 1 3.0130000000000001e-02 8.2507534726371745e+01 1.3249481961757450e+01 1.6909634509952460e+02 0 0 0
123 1 2 -2.6060000000000000e-02 8.2636703260026735e+01 1.2357225074184672e+01 1.7327591485113305e+02 0 0 0
135 1 4 -5.5469999999999998e-02 8.6000535422570508e+01 1.2856251779862964e+01 1.7264558197283304e+02 0 0 0
134 1 1 4.6219999999999997e-02 8.3743854835395737e+01 1.3428658250322343e+01 1.7479808611194912e+02 0 0 0
133 1 3 -5.2420000000000001e-02 8.5063458596316366e+01 1.2716559839709358e+01 1.7331496283634471e+02 0 0 0
129 1 2 2.7160000000000000e-02 8.3875669920451983e+01 1.2540813886582796e+01 1.7416243665922178e+02 0 0 0
115 1 2 2.7449999999999999e-02 8.3877108156549099e+01 1.2542349799544832e+01 1.7061710151339295e+02 0 0 0
119 1 3 -5.2400000000000002e-02 8.5065068219596924e+01 1.2716922736377025e+01 1.6976962723607932e+02 0 0 0
120 1 1 4.6230000000000000e-02 8.3746169925264212e+01 1.3430323976358132e+01 1.7125275239074759e+02 0 0 0
121 1 4 -5.5469999999999998e-02 8.6002282311349703e+01 1.2855689415557643e+01 1.6910024581155128e+02 0 0 0

Velocities

10 0.0000000000000000e+00 0.0000000000000000e+00 0.0000000000000000e+00
14 0.0000000000000000e+00 0.0000000000000000e+00 0.0000000000000000e+00
15 0.0000000000000000e+00 0.0000000000000000e+00 0.0000000000000000e+00
24 0.0000000000000000e+00 0.0000000000000000e+00 0.0000000000000000e+00
28 0.0000000000000000e+00 0.0000000000000000e+00 0.0000000000000000e+00
29 0.0000000000000000e+00 0.0000000000000000e+00 0.0000000000000000e+00
30 0.0000000000000000e+00 0.0000000000000000e+00 0.0000000000000000e+00
4 0.0000000000000000e+00 0.0000000000000000e+00 0.0000000000000000e+00
12 0.0000000000000000e+00 0.0000000000000000e+00 0.0000000000000000e+00
18 0.0000000000000000e+00 0.0000000000000000e+00 0.0000000000000000e+00
26 0.0000000000000000e+00 0.0000000000000000e+00 0.0000000000000000e+00
27 0.0000000000000000e+00 0.0000000000000000e+00 0.0000000000000000e+00
11 0.0000000000000000e+00 0.0000000000000000e+00 0.0000000000000000e+00
19 0.0000000000000000e+00 0.0000000000000000e+00 0.0000000000000000e+00
20 0.0000000000000000e+00 0.0000000000000000e+00 0.0000000000000000e+00
25 0.0000000000000000e+00 0.0000000000000000e+00 0.0000000000000000e+00
33 0.0000000000000000e+00 0.0000000000000000e+00 0.0000000000000000e+00
34 0.0000000000000000e+00 0.0000000000000000e+00 0.0000000000000000e+00
17 0.0000000000000000e+00 0.0000000000000000e+00 0.0000000000000000e+00
21 0.0000000000000000e+00 0.0000000000000000e+00 0.0000000000000000e+00
22 0.0000000000000000e+00 0.0000000000000000e+00 0.0000000000000000e+00
23 0.0000000000000000e+00 0.0000000000000000e+00 0.0000000000000000e+00
31 0.0000000000000000e+00 0.0000000000000000e+00 0.0000000000000000e+00
35 0.0000000000000000e+00 0.0000000000000000e+00 0.0000000000000000e+00
37 0.0000000000000000e+00 0.0000000000000000e+00 0.0000000000000000e+00
38 0.0000000000000000e+00 0.0000000000000000e+00 0.0000000000000000e+00
42 0.0000000000000000e+00 0.0000000000000000e+00 0.0000000000000000e+00
43 0.0000000000000000e+00 0.0000000000000000e+00 0.0000000000000000e+00
44 0.0000000000000000e+00 0.0000000000000000e+00 0.0000000000000000e+00
52 0.0000000000000000e+00 0.0000000000000000e+00 0.0000000000000000e+00
56 0.0000000000000000e+00 0.0000000000000000e+00 0.0000000000000000e+00
57 0.0000000000000000e+00 0.0000000000000000e+00 0.0000000000000000e+00
58 0.0000000000000000e+00 0.0000000000000000e+00 0.0000000000000000e+00
32 0.0000000000000000e+00 0.0000000000000000e+00 0.0000000000000000e+00
40 0.0000000000000000e+00 0.0000000000000000e+00 0.0000000000000000e+00
41 0.0000000000000000e+00 0.0000000000000000e+00 0.0000000000000000e+00
46 0.0000000000000000e+00 0.0000000000000000e+00 0.0000000000000000e+00
54 0.0000000000000000e+00 0.0000000000000000e+00 0.0000000000000000e+00
55 0.0000000000000000e+00 0.0000000000000000e+00 0.0000000000000000e+00
39 0.0000000000000000e+00 0.0000000000000000e+00 0.0000000000000000e+00
47 0.0000000000000000e+00 0.0000000000000000e+00 0.0000000000000000e+00
48 0.0000000000000000e+00 0.0000000000000000e+00 0.0000000000000000e+00
53 0.0000000000000000e+00 0.0000000000000000e+00 0.0000000000000000e+00
62 0.0000000000000000e+00 0.0000000000000000e+00 0.0000000000000000e+00
36 0.0000000000000000e+00 0.0000000000000000e+00 0.0000000000000000e+00
45 0.0000000000000000e+00 0.0000000000000000e+00 0.0000000000000000e+00
49 0.0000000000000000e+00 0.0000000000000000e+00 0.0000000000000000e+00
50 0.0000000000000000e+00 0.0000000000000000e+00 0.0000000000000000e+00
51 0.0000000000000000e+00 0.0000000000000000e+00 0.0000000000000000e+00
63 0.0000000000000000e+00 0.0000000000000000e+00 0.0000000000000000e+00
65 0.0000000000000000e+00 0.0000000000000000e+00 0.0000000000000000e+00
66 0.0000000000000000e+00 0.0000000000000000e+00 0.0000000000000000e+00
70 0.0000000000000000e+00 0.0000000000000000e+00 0.0000000000000000e+00
71 0.0000000000000000e+00 0.0000000000000000e+00 0.0000000000000000e+00
72 0.0000000000000000e+00 0.0000000000000000e+00 0.0000000000000000e+00
80 0.0000000000000000e+00 0.0000000000000000e+00 0.0000000000000000e+00
84 0.0000000000000000e+00 0.0000000000000000e+00 0.0000000000000000e+00
86 0.0000000000000000e+00 0.0000000000000000e+00 0.0000000000000000e+00
60 0.0000000000000000e+00 0.0000000000000000e+00 0.0000000000000000e+00
68 0.0000000000000000e+00 0.0000000000000000e+00 0.0000000000000000e+00
69 0.0000000000000000e+00 0.0000000000000000e+00 0.0000000000000000e+00
74 0.0000000000000000e+00 0.0000000000000000e+00 0.0000000000000000e+00
82 0.0000000000000000e+00 0.0000000000000000e+00 0.0000000000000000e+00
83 0.0000000000000000e+00 0.0000000000000000e+00 0.0000000000000000e+00
61 0.0000000000000000e+00 0.0000000000000000e+00 0.0000000000000000e+00
67 0.0000000000000000e+00 0.0000000000000000e+00 0.0000000000000000e+00
75 0.0000000000000000e+00 0.0000000000000000e+00 0.0000000000000000e+00
76 0.0000000000000000e+00 0.0000000000000000e+00 0.0000000000000000e+00
90 0.0000000000000000e+00 0.0000000000000000e+00 0.0000000000000000e+00
59 0.0000000000000000e+00 0.0000000000000000e+00 0.0000000000000000e+00
64 0.0000000000000000e+00 0.0000000000000000e+00 0.0000000000000000e+00
73 0.0000000000000000e+00 0.0000000000000000e+00 0.0000000000000000e+00
77 0.0000000000000000e+00 0.0000000000000000e+00 0.0000000000000000e+00
78 0.0000000000000000e+00 0.0000000000000000e+00 0.0000000000000000e+00
79 0.0000000000000000e+00 0.0000000000000000e+00 0.0000000000000000e+00
93 0.0000000000000000e+00 0.0000000000000000e+00 0.0000000000000000e+00
85 0.0000000000000000e+00 0.0000000000000000e+00 0.0000000000000000e+00
94 0.0000000000000000e+00 0.0000000000000000e+00 0.0000000000000000e+00
98 0.0000000000000000e+00 0.0000000000000000e+00 0.0000000000000000e+00
99 0.0000000000000000e+00 0.0000000000000000e+00 0.0000000000000000e+00
100 0.0000000000000000e+00 0.0000000000000000e+00 0.0000000000000000e+00
112 0.0000000000000000e+00 0.0000000000000000e+00 0.0000000000000000e+00
114 0.0000000000000000e+00 0.0000000000000000e+00 0.0000000000000000e+00
88 0.0000000000000000e+00 0.0000000000000000e+00 0.0000000000000000e+00
96 0.0000000000000000e+00 0.0000000000000000e+00 0.0000000000000000e+00
97 0.0000000000000000e+00 0.0000000000000000e+00 0.0000000000000000e+00
102 0.0000000000000000e+00 0.0000000000000000e+00 0.0000000000000000e+00
110 0.0000000000000000e+00 0.0000000000000000e+00 0.0000000000000000e+00
111 0.0000000000000000e+00 0.0000000000000000e+00 0.0000000000000000e+00
81 0.0000000000000000e+00 0.0000000000000000e+00 0.0000000000000000e+00
89 0.0000000000000000e+00 0.0000000000000000e+00 0.0000000000000000e+00
95 0.0000000000000000e+00 0.0000000000000000e+00 0.0000000000000000e+00
103 0.0000000000000000e+00 0.0000000000000000e+00 0.0000000000000000e+00
104 0.0000000000000000e+00 0.0000000000000000e+00 0.0000000000000000e+00
87 0.0000000000000000e+00 0.0000000000000000e+00 0.0000000000000000e+00
91 0.0000000000000000e+00 0.0000000000000000e+00 0.0000000000000000e+00
92 0.0000000000000000e+00 0.0000000000000000e+00 0.0000000000000000e+00
101 0.0000000000000000e+00 0.0000000000000000e+00 0.0000000000000000e+00
105 0.0000000000000000e+00 0.0000000000000000e+00 0.0000000000000000e+00
106 0.0000000000000000e+00 0.0000000000000000e+00 0.0000000000000000e+00
107 0.0000000000000000e+00 0.0000000000000000e+00 0.0000000000000000e+00
127 0.0000000000000000e+00 0.0000000000000000e+00 0.0000000000000000e+00
128 0.0000000000000000e+00 0.0000000000000000e+00 0.0000000000000000e+00
16 0.0000000000000000e+00 0.0000000000000000e+00 0.0000000000000000e+00
108 0.0000000000000000e+00 0.0000000000000000e+00 0.0000000000000000e+00
113 0.0000000000000000e+00 0.0000000000000000e+00 0.0000000000000000e+00
122 0.0000000000000000e+00 0.0000000000000000e+00 0.0000000000000000e+00
126 0.0000000000000000e+00 0.0000000000000000e+00 0.0000000000000000e+00
13 0.0000000000000000e+00 0.0000000000000000e+00 0.0000000000000000e+00
116 0.0000000000000000e+00 0.0000000000000000e+00 0.0000000000000000e+00
124 0.0000000000000000e+00 0.0000000000000000e+00 0.0000000000000000e+00
125 0.0000000000000000e+00 0.0000000000000000e+00 0.0000000000000000e+00
132 0.0000000000000000e+00 0.0000000000000000e+00 0.0000000000000000e+00
131 0.0000000000000000e+00 0.0000000000000000e+00 0.0000000000000000e+00
109 0.0000000000000000e+00 0.0000000000000000e+00 0.0000000000000000e+00
117 0.0000000000000000e+00 0.0000000000000000e+00 0.0000000000000000e+00
118 0.0000000000000000e+00 0.0000000000000000e+00 0.0000000000000000e+00
123 0.0000000000000000e+00 0.0000000000000000e+00 0.0000000000000000e+00
135 0.0000000000000000e+00 0.0000000000000000e+00 0.0000000000000000e+00
134 0.0000000000000000e+00 0.0000000000000000e+00 0.0000000000000000e+00
133 0.0000000000000000e+00 0.0000000000000000e+00 0.0000000000000000e+00
129 0.0000000000000000e+00 0.0000000000000000e+00 0.0000000000000000e+00
115 0.0000000000000000e+00 0.0000000000000000e+00 0.0000000000000000e+00
119 0.0000000000000000e+00 0.0000000000000000e+00 0.0000000000000000e+00
120 0.0000000000000000e+00 0.0000000000000000e+00 0.0000000000000000e+00
121 0.0000000000000000e+00 0.0000000000000000e+00 0.0000000000000000e+00

Bonds

1 2 10 4
2 3 14 10
3 1 15 10
4 2 24 18
5 3 28 24
6 1 29 24
7 4 30 28
8 2 4 129
9 1 12 4
10 2 18 17
11 1 26 18
12 1 27 18
13 2 11 10
14 1 19 11
15 1 20 11
16 2 25 24
17 1 33 25
18 1 34 25
19 2 17 11
20 3 21 17
21 1 22 17
22 4 23 21
23 2 31 25
24 3 35 31
25 4 37 35
26 2 38 32
27 3 42 38
28 1 43 38
29 4 44 42
30 2 52 46
31 3 56 52
32 1 57 52
33 4 58 56
34 2 32 31
35 1 40 32
36 1 41 32
37 2 46 45
38 1 54 46
39 1 55 46
40 2 39 38
41 1 47 39
42 1 48 39
43 2 53 52
44 1 62 53
45 1 36 31
46 2 45 39
47 3 49 45
48 1 50 45
49 4 51 49
50 3 63 59
51 4 65 63
52 2 66 60
53 3 70 66
54 1 71 66
55 4 72 70
56 2 80 74
57 3 84 80
58 4 86 84
59 2 60 59
60 1 68 60
61 1 69 60
62 2 74 73
63 1 82 74
64 1 83 74
65 1 61 53
66 2 67 66
67 1 75 67
68 1 76 67
69 1 90 81
70 2 59 53
71 1 64 59
72 2 73 67
73 3 77 73
74 1 78 73
75 4 79 77
76 4 93 91
77 1 85 80
78 2 94 88
79 3 98 94
80 1 99 94
81 4 100 98
82 3 112 108
83 4 114 112
84 2 88 87
85 1 96 88
86 1 97 88
87 2 102 101
88 1 110 102
89 1 111 102
90 2 81 80
91 1 89 81
92 2 95 94
93 1 103 95
94 1 104 95
95 2 87 81
96 3 91 87
97 1 92 87
98 2 101 95
99 3 105 101
100 1 106 101
101 4 107 105
102 1 127 122
103 4 128 126
104 4 16 14
105 2 108 102
106 1 113 108
107 2 122 116
108 3 126 122
109 1 13 4
110 2 116 115
111 1 124 116
112 1 125 116
113 1 132 123
114 1 131 123
115 2 109 108
116 1 117 109
117 1 118 109
118 2 123 122
119 1 134 129
120 3 133 129
121 4 133 135
122 2 129 123
123 2 115 109
124 3 119 115
125 1 120 115
126 4 121 119

Angles

1 1 4 10 11
2 1 4 10 14
3 1 4 10 15
4 1 11 10 14
5 1 11 10 15
6 1 14 10 15
7 2 10 14 16
8 1 18 24 25
9 1 18 24 28
10 1 18 24 29
11 1 25 24 28
12 1 25 24 29
13 1 28 24 29
14 2 24 28 30
15 1 12 4 13
16 1 10 4 13
17 1 10 4 12
18 1 10 4 129
19 1 12 4 129
20 1 13 4 129
21 1 17 18 24
22 1 17 18 26
23 1 17 18 27
24 1 24 18 26
25 1 24 18 27
26 1 26 18 27
27 1 10 11 17
28 1 10 11 19
29 1 10 11 20
30 1 17 11 19
31 1 17 11 20
32 1 19 11 20
33 1 24 25 31
34 1 24 25 33
35 1 24 25 34
36 1 31 25 33
37 1 31 25 34
38 1 33 25 34
39 1 11 17 18
40 1 11 17 21
41 1 11 17 22
42 1 18 17 21
43 1 18 17 22
44 1 21 17 22
45 2 17 21 23
46 1 25 31 32
47 1 25 31 35
48 1 25 31 36
49 1 32 31 35
50 1 32 31 36
51 1 35 31 36
52 2 31 35 37
53 1 32 38 39
54 1 32 38 42
55 1 32 38 43
56 1 39 38 42
57 1 39 38 43
58 1 42 38 43
59 2 38 42 44
60 1 46 52 53
61 1 46 52 56
62 1 46 52 57
63 1 53 52 56
64 1 53 52 57
65 1 56 52 57
66 2 52 56 58
67 1 31 32 38
68 1 31 32 40
69 1 31 32 41
70 1 38 32 40
71 1 38 32 41
72 1 40 32 41
73 1 45 46 52
74 1 45 46 54
75 1 45 46 55
76 1 52 46 54
77 1 52 46 55
78 1 54 46 55
79 1 38 39 45
80 1 38 39 47
81 1 38 39 48
82 1 45 39 47
83 1 45 39 48
84 1 47 39 48
85 1 52 53 59
86 1 52 53 61
87 1 52 53 62
88 1 59 53 61
89 1 59 53 62
90 1 61 53 62
91 1 39 45 46
92 1 39 45 49
93 1 39 45 50
94 1 46 45 49
95 1 46 45 50
96 1 49 45 50
97 2 45 49 51
98 2 59 63 65
99 1 60 66 67
100 1 60 66 70
101 1 60 66 71
102 1 67 66 70
103 1 67 66 71
104 1 70 66 71
105 2 66 70 72
106 1 74 80 81
107 1 74 80 84
108 1 74 80 85
109 1 81 80 84
110 1 81 80 85
111 1 84 80 85
112 2 80 84 86
113 1 59 60 66
114 1 59 60 68
115 1 59 60 69
116 1 66 60 68
117 1 66 60 69
118 1 68 60 69
119 1 73 74 80
120 1 73 74 82
121 1 73 74 83
122 1 80 74 82
123 1 80 74 83
124 1 82 74 83
125 1 66 67 73
126 1 66 67 75
127 1 66 67 76
128 1 73 67 75
129 1 73 67 76
130 1 75 67 76
131 1 53 59 60
132 1 53 59 63
133 1 53 59 64
134 1 60 59 63
135 1 60 59 64
136 1 63 59 64
137 1 67 73 74
138 1 67 73 77
139 1 67 73 78
140 1 74 73 77
141 1 74 73 78
142 1 77 73 78
143 2 73 77 79
144 1 88 94 95
145 1 88 94 98
146 1 88 94 99
147 1 95 94 98
148 1 95 94 99
149 1 98 94 99
150 2 94 98 100
151 2 108 112 114
152 1 87 88 94
153 1 87 88 96
154 1 87 88 97
155 1 94 88 96
156 1 94 88 97
157 1 96 88 97
158 1 101 102 108
159 1 101 102 110
160 1 101 102 111
161 1 108 102 110
162 1 108 102 111
163 1 110 102 111
164 1 80 81 87
165 1 80 81 89
166 1 80 81 90
167 1 87 81 89
168 1 87 81 90
169 1 89 81 90
170 1 94 95 101
171 1 94 95 103
172 1 94 95 104
173 1 101 95 103
174 1 101 95 104
175 1 103 95 104
176 1 81 87 88
177 1 81 87 91
178 1 81 87 92
179 1 88 87 91
180 1 88 87 92
181 1 91 87 92
182 2 87 91 93
183 1 95 101 102
184 1 95 101 105
185 1 95 101 106
186 1 102 101 105
187 1 102 101 106
188 1 105 101 106
189 2 101 105 107
190 1 102 108 109
191 1 102 108 112
192 1 102 108 113
193 1 109 108 112
194 1 109 108 113
195 1 112 108 113
196 1 116 122 123
197 1 116 122 126
198 1 116 122 127
199 1 123 122 126
200 1 123 122 127
201 1 126 122 127
202 2 122 126 128
203 1 115 116 122
204 1 115 116 124
205 1 115 116 125
206 1 122 116 124
207 1 122 116 125
208 1 124 116 125
209 1 108 109 115
210 1 108 109 117
211 1 108 109 118
212 1 115 109 117
213 1 115 109 118
214 1 117 109 118
215 1 122 123 129
216 1 122 123 131
217 1 122 123 132
218 1 129 123 131
219 1 129 123 132
220 1 131 123 132
221 2 129 133 135
222 1 133 129 134
223 1 123 129 133
224 1 123 129 134
225 1 134 129 4
226 1 133 129 4
227 1 123 129 4
228 1 109 115 116
229 1 109 115 119
230 1 109 115 120
231 1 116 115 119
232 1 116 115 120
233 1 119 115 120
234 2 115 119 121

Dihedrals

1 1 15 10 4 13
2 1 11 10 4 12
3 1 11 10 4 13
4 1 15 10 4 12
5 1 14 10 4 12
6 1 14 10 4 13
7 8 16 14 10 4
8 8 16 14 10 11
9 8 16 14 10 15
10 1 25 24 18 17
11 1 25 24 18 26
12 1 25 24 18 27
13 1 28 24 18 17
14 1 28 24 18 26
15 1 28 24 18 27
16 1 29 24 18 17
17 1 29 24 18 26
18 1 29 24 18 27
19 8 30 28 24 18
20 8 30 28 24 25
21 8 30 28 24 29
22 1 10 4 129 134
23 1 10 4 129 133
24 1 10 4 129 123
25 1 12 4 129 134
26 1 12 4 129 133
27 1 12 4 129 123
28 1 13 4 129 134
29 1 13 4 129 133
30 1 13 4 129 123
31 1 129 4 10 11
32 1 129 4 10 14
33 1 129 4 10 15
34 1 24 18 17 11
35 1 24 18 17 21
36 1 24 18 17 22
37 1 26 18 17 11
38 1 26 18 17 21
39 1 26 18 17 22
40 1 27 18 17 11
41 1 27 18 17 21
42 1 27 18 17 22
43 1 17 11 10 4
44 1 17 11 10 14
45 1 17 11 10 15
46 1 19 11 10 4
47 1 19 11 10 14
48 1 19 11 10 15
49 1 20 11 10 4
50 1 20 11 10 14
51 1 20 11 10 15
52 1 31 25 24 18
53 1 31 25 24 28
54 1 31 25 24 29
55 1 33 25 24 18
56 1 33 25 24 28
57 1 33 25 24 29
58 1 34 25 24 18
59 1 34 25 24 28
60 1 34 25 24 29
61 1 18 17 11 10
62 1 18 17 11 19
63 1 18 17 11 20
64 1 21 17 11 10
65 1 21 17 11 19
66 1 21 17 11 20
67 1 22 17 11 10
68 1 22 17 11 19
69 1 22 17 11 20
70 8 23 21 17 11
71 8 23 21 17 18
72 8 23 21 17 22
73 1 32 31 25 24
74 1 32 31 25 33
75 1 32 31 25 34
76 1 35 31 25 24
77 1 35 31 25 33
78 1 35 31 25 34
79 1 36 31 25 24
80 1 36 31 25 33
81 1 36 31 25 34
82 8 37 35 31 25
83 8 37 35 31 32
84 8 37 35 31 36
85 1 39 38 32 31
86 1 39 38 32 40
87 1 39 38 32 41
88 1 42 38 32 31
89 1 42 38 32 40
90 1 42 38 32 41
91 1 43 38 32 31
92 1 43 38 32 40
93 1 43 38 32 41
94 8 44 42 38 32
95 8 44 42 38 39
96 8 44 42 38 43